File written on 19Jan2026 at 22:01:06 

calc_only_A  :  F

begin real_lattice
   3.1415927   3.1415927   0.0000000
   3.1415927  -3.1415927   0.0000000
   0.0000000   0.0000000  30.0000000
end real_lattice

begin recip_lattice
   1.0000000   1.0000000  -0.0000000
   1.0000000  -1.0000000  -0.0000000
  -0.0000000  -0.0000000   0.2094395
end recip_lattice

begin kpoints
    64
    0.00000000    0.00000000    0.00000000
    0.00000000    0.12500000    0.00000000
    0.00000000    0.25000000    0.00000000
    0.00000000    0.37500000    0.00000000
    0.00000000    0.50000000    0.00000000
    0.00000000    0.62500000    0.00000000
    0.00000000    0.75000000    0.00000000
    0.00000000    0.87500000    0.00000000
    0.12500000    0.00000000    0.00000000
    0.12500000    0.12500000    0.00000000
    0.12500000    0.25000000    0.00000000
    0.12500000    0.37500000    0.00000000
    0.12500000    0.50000000    0.00000000
    0.12500000    0.62500000    0.00000000
    0.12500000    0.75000000    0.00000000
    0.12500000    0.87500000    0.00000000
    0.25000000    0.00000000    0.00000000
    0.25000000    0.12500000    0.00000000
    0.25000000    0.25000000    0.00000000
    0.25000000    0.37500000    0.00000000
    0.25000000    0.50000000    0.00000000
    0.25000000    0.62500000    0.00000000
    0.25000000    0.75000000    0.00000000
    0.25000000    0.87500000    0.00000000
    0.37500000    0.00000000    0.00000000
    0.37500000    0.12500000    0.00000000
    0.37500000    0.25000000    0.00000000
    0.37500000    0.37500000    0.00000000
    0.37500000    0.50000000    0.00000000
    0.37500000    0.62500000    0.00000000
    0.37500000    0.75000000    0.00000000
    0.37500000    0.87500000    0.00000000
    0.50000000    0.00000000    0.00000000
    0.50000000    0.12500000    0.00000000
    0.50000000    0.25000000    0.00000000
    0.50000000    0.37500000    0.00000000
    0.50000000    0.50000000    0.00000000
    0.50000000    0.62500000    0.00000000
    0.50000000    0.75000000    0.00000000
    0.50000000    0.87500000    0.00000000
    0.62500000    0.00000000    0.00000000
    0.62500000    0.12500000    0.00000000
    0.62500000    0.25000000    0.00000000
    0.62500000    0.37500000    0.00000000
    0.62500000    0.50000000    0.00000000
    0.62500000    0.62500000    0.00000000
    0.62500000    0.75000000    0.00000000
    0.62500000    0.87500000    0.00000000
    0.75000000    0.00000000    0.00000000
    0.75000000    0.12500000    0.00000000
    0.75000000    0.25000000    0.00000000
    0.75000000    0.37500000    0.00000000
    0.75000000    0.50000000    0.00000000
    0.75000000    0.62500000    0.00000000
    0.75000000    0.75000000    0.00000000
    0.75000000    0.87500000    0.00000000
    0.87500000    0.00000000    0.00000000
    0.87500000    0.12500000    0.00000000
    0.87500000    0.25000000    0.00000000
    0.87500000    0.37500000    0.00000000
    0.87500000    0.50000000    0.00000000
    0.87500000    0.62500000    0.00000000
    0.87500000    0.75000000    0.00000000
    0.87500000    0.87500000    0.00000000
end kpoints

begin projections
     2
   0.69245    0.79461    0.08376     0  1  1
    0.0000000  0.0000000  1.0000000   1.0000000  0.0000000  0.0000000    1.00
   0.42742    0.54614    0.09333     0  1  1
    0.0000000  0.0000000  1.0000000   1.0000000  0.0000000  0.0000000    1.00
end projections

begin nnkpts
   6
     1     2      0   0   0
     1     9      0   0   0
     1     8      0  -1   0
     1    57     -1   0   0
     1     1      0   0   1
     1     1      0   0  -1
     2     1      0   0   0
     2     3      0   0   0
     2    10      0   0   0
     2    58     -1   0   0
     2     2      0   0   1
     2     2      0   0  -1
     3     2      0   0   0
     3     4      0   0   0
     3    11      0   0   0
     3    59     -1   0   0
     3     3      0   0   1
     3     3      0   0  -1
     4     3      0   0   0
     4     5      0   0   0
     4    12      0   0   0
     4    60     -1   0   0
     4     4      0   0   1
     4     4      0   0  -1
     5     4      0   0   0
     5     6      0   0   0
     5    13      0   0   0
     5    61     -1   0   0
     5     5      0   0   1
     5     5      0   0  -1
     6     5      0   0   0
     6     7      0   0   0
     6    14      0   0   0
     6    62     -1   0   0
     6     6      0   0   1
     6     6      0   0  -1
     7     6      0   0   0
     7     8      0   0   0
     7    15      0   0   0
     7    63     -1   0   0
     7     7      0   0   1
     7     7      0   0  -1
     8     7      0   0   0
     8    16      0   0   0
     8     1      0   1   0
     8    64     -1   0   0
     8     8      0   0   1
     8     8      0   0  -1
     9     1      0   0   0
     9    10      0   0   0
     9    17      0   0   0
     9    16      0  -1   0
     9     9      0   0   1
     9     9      0   0  -1
    10     2      0   0   0
    10     9      0   0   0
    10    11      0   0   0
    10    18      0   0   0
    10    10      0   0   1
    10    10      0   0  -1
    11     3      0   0   0
    11    10      0   0   0
    11    12      0   0   0
    11    19      0   0   0
    11    11      0   0   1
    11    11      0   0  -1
    12     4      0   0   0
    12    11      0   0   0
    12    13      0   0   0
    12    20      0   0   0
    12    12      0   0   1
    12    12      0   0  -1
    13     5      0   0   0
    13    12      0   0   0
    13    14      0   0   0
    13    21      0   0   0
    13    13      0   0   1
    13    13      0   0  -1
    14     6      0   0   0
    14    13      0   0   0
    14    15      0   0   0
    14    22      0   0   0
    14    14      0   0   1
    14    14      0   0  -1
    15     7      0   0   0
    15    14      0   0   0
    15    16      0   0   0
    15    23      0   0   0
    15    15      0   0   1
    15    15      0   0  -1
    16     8      0   0   0
    16    15      0   0   0
    16    24      0   0   0
    16     9      0   1   0
    16    16      0   0   1
    16    16      0   0  -1
    17     9      0   0   0
    17    18      0   0   0
    17    25      0   0   0
    17    24      0  -1   0
    17    17      0   0   1
    17    17      0   0  -1
    18    10      0   0   0
    18    17      0   0   0
    18    19      0   0   0
    18    26      0   0   0
    18    18      0   0   1
    18    18      0   0  -1
    19    11      0   0   0
    19    18      0   0   0
    19    20      0   0   0
    19    27      0   0   0
    19    19      0   0   1
    19    19      0   0  -1
    20    12      0   0   0
    20    19      0   0   0
    20    21      0   0   0
    20    28      0   0   0
    20    20      0   0   1
    20    20      0   0  -1
    21    13      0   0   0
    21    20      0   0   0
    21    22      0   0   0
    21    29      0   0   0
    21    21      0   0   1
    21    21      0   0  -1
    22    14      0   0   0
    22    21      0   0   0
    22    23      0   0   0
    22    30      0   0   0
    22    22      0   0   1
    22    22      0   0  -1
    23    15      0   0   0
    23    22      0   0   0
    23    24      0   0   0
    23    31      0   0   0
    23    23      0   0   1
    23    23      0   0  -1
    24    16      0   0   0
    24    23      0   0   0
    24    32      0   0   0
    24    17      0   1   0
    24    24      0   0   1
    24    24      0   0  -1
    25    17      0   0   0
    25    26      0   0   0
    25    33      0   0   0
    25    32      0  -1   0
    25    25      0   0   1
    25    25      0   0  -1
    26    18      0   0   0
    26    25      0   0   0
    26    27      0   0   0
    26    34      0   0   0
    26    26      0   0   1
    26    26      0   0  -1
    27    19      0   0   0
    27    26      0   0   0
    27    28      0   0   0
    27    35      0   0   0
    27    27      0   0   1
    27    27      0   0  -1
    28    20      0   0   0
    28    27      0   0   0
    28    29      0   0   0
    28    36      0   0   0
    28    28      0   0   1
    28    28      0   0  -1
    29    21      0   0   0
    29    28      0   0   0
    29    30      0   0   0
    29    37      0   0   0
    29    29      0   0   1
    29    29      0   0  -1
    30    22      0   0   0
    30    29      0   0   0
    30    31      0   0   0
    30    38      0   0   0
    30    30      0   0   1
    30    30      0   0  -1
    31    23      0   0   0
    31    30      0   0   0
    31    32      0   0   0
    31    39      0   0   0
    31    31      0   0   1
    31    31      0   0  -1
    32    24      0   0   0
    32    31      0   0   0
    32    40      0   0   0
    32    25      0   1   0
    32    32      0   0   1
    32    32      0   0  -1
    33    25      0   0   0
    33    34      0   0   0
    33    41      0   0   0
    33    40      0  -1   0
    33    33      0   0   1
    33    33      0   0  -1
    34    26      0   0   0
    34    33      0   0   0
    34    35      0   0   0
    34    42      0   0   0
    34    34      0   0   1
    34    34      0   0  -1
    35    27      0   0   0
    35    34      0   0   0
    35    36      0   0   0
    35    43      0   0   0
    35    35      0   0   1
    35    35      0   0  -1
    36    28      0   0   0
    36    35      0   0   0
    36    37      0   0   0
    36    44      0   0   0
    36    36      0   0   1
    36    36      0   0  -1
    37    29      0   0   0
    37    36      0   0   0
    37    38      0   0   0
    37    45      0   0   0
    37    37      0   0   1
    37    37      0   0  -1
    38    30      0   0   0
    38    37      0   0   0
    38    39      0   0   0
    38    46      0   0   0
    38    38      0   0   1
    38    38      0   0  -1
    39    31      0   0   0
    39    38      0   0   0
    39    40      0   0   0
    39    47      0   0   0
    39    39      0   0   1
    39    39      0   0  -1
    40    32      0   0   0
    40    39      0   0   0
    40    48      0   0   0
    40    33      0   1   0
    40    40      0   0   1
    40    40      0   0  -1
    41    33      0   0   0
    41    42      0   0   0
    41    49      0   0   0
    41    48      0  -1   0
    41    41      0   0   1
    41    41      0   0  -1
    42    34      0   0   0
    42    41      0   0   0
    42    43      0   0   0
    42    50      0   0   0
    42    42      0   0   1
    42    42      0   0  -1
    43    35      0   0   0
    43    42      0   0   0
    43    44      0   0   0
    43    51      0   0   0
    43    43      0   0   1
    43    43      0   0  -1
    44    36      0   0   0
    44    43      0   0   0
    44    45      0   0   0
    44    52      0   0   0
    44    44      0   0   1
    44    44      0   0  -1
    45    37      0   0   0
    45    44      0   0   0
    45    46      0   0   0
    45    53      0   0   0
    45    45      0   0   1
    45    45      0   0  -1
    46    38      0   0   0
    46    45      0   0   0
    46    47      0   0   0
    46    54      0   0   0
    46    46      0   0   1
    46    46      0   0  -1
    47    39      0   0   0
    47    46      0   0   0
    47    48      0   0   0
    47    55      0   0   0
    47    47      0   0   1
    47    47      0   0  -1
    48    40      0   0   0
    48    47      0   0   0
    48    56      0   0   0
    48    41      0   1   0
    48    48      0   0   1
    48    48      0   0  -1
    49    41      0   0   0
    49    50      0   0   0
    49    57      0   0   0
    49    56      0  -1   0
    49    49      0   0   1
    49    49      0   0  -1
    50    42      0   0   0
    50    49      0   0   0
    50    51      0   0   0
    50    58      0   0   0
    50    50      0   0   1
    50    50      0   0  -1
    51    43      0   0   0
    51    50      0   0   0
    51    52      0   0   0
    51    59      0   0   0
    51    51      0   0   1
    51    51      0   0  -1
    52    44      0   0   0
    52    51      0   0   0
    52    53      0   0   0
    52    60      0   0   0
    52    52      0   0   1
    52    52      0   0  -1
    53    45      0   0   0
    53    52      0   0   0
    53    54      0   0   0
    53    61      0   0   0
    53    53      0   0   1
    53    53      0   0  -1
    54    46      0   0   0
    54    53      0   0   0
    54    55      0   0   0
    54    62      0   0   0
    54    54      0   0   1
    54    54      0   0  -1
    55    47      0   0   0
    55    54      0   0   0
    55    56      0   0   0
    55    63      0   0   0
    55    55      0   0   1
    55    55      0   0  -1
    56    48      0   0   0
    56    55      0   0   0
    56    64      0   0   0
    56    49      0   1   0
    56    56      0   0   1
    56    56      0   0  -1
    57    49      0   0   0
    57    58      0   0   0
    57     1      1   0   0
    57    64      0  -1   0
    57    57      0   0   1
    57    57      0   0  -1
    58    50      0   0   0
    58    57      0   0   0
    58    59      0   0   0
    58     2      1   0   0
    58    58      0   0   1
    58    58      0   0  -1
    59    51      0   0   0
    59    58      0   0   0
    59    60      0   0   0
    59     3      1   0   0
    59    59      0   0   1
    59    59      0   0  -1
    60    52      0   0   0
    60    59      0   0   0
    60    61      0   0   0
    60     4      1   0   0
    60    60      0   0   1
    60    60      0   0  -1
    61    53      0   0   0
    61    60      0   0   0
    61    62      0   0   0
    61     5      1   0   0
    61    61      0   0   1
    61    61      0   0  -1
    62    54      0   0   0
    62    61      0   0   0
    62    63      0   0   0
    62     6      1   0   0
    62    62      0   0   1
    62    62      0   0  -1
    63    55      0   0   0
    63    62      0   0   0
    63    64      0   0   0
    63     7      1   0   0
    63    63      0   0   1
    63    63      0   0  -1
    64    56      0   0   0
    64    63      0   0   0
    64     8      1   0   0
    64    57      0   1   0
    64    64      0   0   1
    64    64      0   0  -1
end nnkpts

begin exclude_bands
   0
end exclude_bands
